! AWR Design Environment (9307) Mon Sep  2 17:34:05 2019
! Document = 'Drain EM Export'
! nPorts: 2, nXvals: 220

# GHz S DB R 50
!Freq DBS11 AngS11 DBS21 AngS21 DBS12 AngS12 DBS22 AngS22 
0.5 -75.298149 48.876506 -0.00097891019 -0.090640104 -0.00097891019 -0.090640104 -76.640533 40.323938 
